# lammps data file generated from packed_methane_pdb_to_lammps.py
10435 atoms
8348 bonds
12522 angles
0 dihedrals
0 impropers

2 atom types
1 bond types
1 angle types
0 dihedral types
0 improper types

#-0.500000 0.500000  xlo xhi
#-0.500000 0.500000  ylo yhi
#-0.500000 0.500000  zlo zhi
-1 51 xlo xhi
-1 51 ylo yhi
-1 51 zlo zhi

Masses

1 12.011
2 1.0
