Frequencies at STP                                                      
Freq      RB3LYP                                                      6-31G(d)            
Number of atoms                            I                5
Info1-9                                    I   N=           9
          15          12        1001           0           0         100
           6          18        -502
Charge                                     I                0
Multiplicity                               I                1
Number of electrons                        I               10
Number of alpha electrons                  I                5
Number of beta electrons                   I                5
Number of basis functions                  I               23
Number of independent functions            I               23
Number of point charges in /Mol/           I                0
Number of translation vectors              I                0
Atomic numbers                             I   N=           5
           6           1           1           1           1
Nuclear charges                            R   N=           5
  6.00000000E+00  1.00000000E+00  1.00000000E+00  1.00000000E+00  1.00000000E+00
Current cartesian coordinates              R   N=          15
  2.93141708E-06 -3.22562349E-06 -4.66014729E-06 -1.53842347E+00 -8.41504577E-01
 -1.09331147E+00 -6.96585584E-01  5.34557098E-01  1.87062450E+00  7.02717892E-01
  1.67870924E+00 -9.78942610E-01  1.53227357E+00 -1.37174241E+00  2.01657543E-01
Number of symbols in /Mol/                 I                0
Force Field                                I                0
Atom Types                                 C   N=           5
                                                            
Int Atom Types                             I   N=           5
           0           0           0           0           0
MM charges                                 R   N=           5
  0.00000000E+00  0.00000000E+00  0.00000000E+00  0.00000000E+00  0.00000000E+00
Integer atomic weights                     I   N=           5
          12           1           1           1           1
Real atomic weights                        R   N=           5
  1.20000000E+01  1.00782504E+00  1.00782504E+00  1.00782504E+00  1.00782504E+00
Atom fragment info                         I   N=           5
           0           0           0           0           0
Atom residue num                           I   N=           5
           0           0           0           0           0
Nuclear spins                              I   N=           5
           0           1           1           1           1
Nuclear ZEff                               R   N=           5
 -3.60000000E+00 -1.00000000E+00 -1.00000000E+00 -1.00000000E+00 -1.00000000E+00
Nuclear QMom                               R   N=           5
  0.00000000E+00  0.00000000E+00  0.00000000E+00  0.00000000E+00  0.00000000E+00
Nuclear GFac                               R   N=           5
  0.00000000E+00  2.79284600E+00  2.79284600E+00  2.79284600E+00  2.79284600E+00
MicOpt                                     I   N=           5
          -1          -1          -1          -1          -1
Number of residues                         I                0
Number of secondary structures             I                0
Number of contracted shells                I               12
Number of primitive shells                 I               27
Pure/Cartesian d shells                    I                1
Pure/Cartesian f shells                    I                0
Highest angular momentum                   I                2
Largest degree of contraction              I                6
Shell types                                I   N=          12
           0          -1          -1           2           0           0
           0           0           0           0           0           0
Number of primitives per shell             I   N=          12
           6           3           1           1           3           1
           3           1           3           1           3           1
Shell to atom map                          I   N=          12
           1           1           1           1           2           2
           3           3           4           4           5           5
Primitive exponents                        R   N=          27
  3.04752488E+03  4.57369518E+02  1.03948685E+02  2.92101553E+01  9.28666296E+00
  3.16392696E+00  7.86827235E+00  1.88128854E+00  5.44249258E-01  1.68714478E-01
  8.00000000E-01  1.87311370E+01  2.82539436E+00  6.40121692E-01  1.61277759E-01
  1.87311370E+01  2.82539436E+00  6.40121692E-01  1.61277759E-01  1.87311370E+01
  2.82539436E+00  6.40121692E-01  1.61277759E-01  1.87311370E+01  2.82539436E+00
  6.40121692E-01  1.61277759E-01
Contraction coefficients                   R   N=          27
  1.83473713E-03  1.40373228E-02  6.88426223E-02  2.32184443E-01  4.67941348E-01
  3.62311985E-01 -1.19332420E-01 -1.60854152E-01  1.14345644E+00  1.00000000E+00
  1.00000000E+00  3.34946043E-02  2.34726953E-01  8.13757326E-01  1.00000000E+00
  3.34946043E-02  2.34726953E-01  8.13757326E-01  1.00000000E+00  3.34946043E-02
  2.34726953E-01  8.13757326E-01  1.00000000E+00  3.34946043E-02  2.34726953E-01
  8.13757326E-01  1.00000000E+00
P(S=P) Contraction coefficients            R   N=          27
  0.00000000E+00  0.00000000E+00  0.00000000E+00  0.00000000E+00  0.00000000E+00
  0.00000000E+00  6.89990666E-02  3.16423961E-01  7.44308291E-01  1.00000000E+00
  0.00000000E+00  0.00000000E+00  0.00000000E+00  0.00000000E+00  0.00000000E+00
  0.00000000E+00  0.00000000E+00  0.00000000E+00  0.00000000E+00  0.00000000E+00
  0.00000000E+00  0.00000000E+00  0.00000000E+00  0.00000000E+00  0.00000000E+00
  0.00000000E+00  0.00000000E+00
Coordinates of each shell                  R   N=          36
  2.93141708E-06 -3.22562349E-06 -4.66014729E-06  2.93141708E-06 -3.22562349E-06
 -4.66014729E-06  2.93141708E-06 -3.22562349E-06 -4.66014729E-06  2.93141708E-06
 -3.22562349E-06 -4.66014729E-06 -1.53842347E+00 -8.41504577E-01 -1.09331147E+00
 -1.53842347E+00 -8.41504577E-01 -1.09331147E+00 -6.96585584E-01  5.34557098E-01
  1.87062450E+00 -6.96585584E-01  5.34557098E-01  1.87062450E+00  7.02717892E-01
  1.67870924E+00 -9.78942610E-01  7.02717892E-01  1.67870924E+00 -9.78942610E-01
  1.53227357E+00 -1.37174241E+00  2.01657543E-01  1.53227357E+00 -1.37174241E+00
  2.01657543E-01
Constraint Structure                       R   N=          15
  2.93141708E-06 -3.22562349E-06 -4.66014729E-06 -1.53842347E+00 -8.41504577E-01
 -1.09331147E+00 -6.96585584E-01  5.34557098E-01  1.87062450E+00  7.02717892E-01
  1.67870924E+00 -9.78942610E-01  1.53227357E+00 -1.37174241E+00  2.01657543E-01
Num ILSW                                   I              100
ILSW                                       I   N=         100
           0           1           0           0           2           0
           0           0           3           0         402          -1
           0           0           0           0           0           0
           0           0           1           0           1           0
           1           0           0           0           0           0
           0           0      100000           0          -1           0
           0           0           0           0           0           0
           0           0           0           1           0           0
           0           0           1           0           0           0
           0           0           4          40           0           0
           0           0           5           0           0           0
           0           0           0           0           0           0
           0           0           0           0           0           0
           0           0           0           0           0           0
           0           0           0           0           0           0
           0           0           0           0           0           0
           0           0           0           0
Num RLSW                                   I               40
RLSW                                       R   N=          40
  8.00000000E-01  7.20000000E-01  1.00000000E+00  8.10000000E-01  2.00000000E-01
  0.00000000E+00  0.00000000E+00  1.00000000E+00  0.00000000E+00  0.00000000E+00
  0.00000000E+00  0.00000000E+00  1.00000000E+00  0.00000000E+00  0.00000000E+00
  0.00000000E+00  0.00000000E+00  1.00000000E+00  0.00000000E+00  0.00000000E+00
  0.00000000E+00  0.00000000E+00  1.00000000E+00  0.00000000E+00  0.00000000E+00
  0.00000000E+00  0.00000000E+00  1.00000000E+00  0.00000000E+00  0.00000000E+00
  0.00000000E+00  0.00000000E+00  0.00000000E+00  0.00000000E+00  0.00000000E+00
  0.00000000E+00  0.00000000E+00  0.00000000E+00  1.00000000E+00  1.00000000E+00
MxBond                                     I                4
NBond                                      I   N=           5
           4           1           1           1           1
IBond                                      I   N=          20
           2           3           4           5           1           0
           0           0           1           0           0           0
           1           0           0           0           1           0
           0           0
RBond                                      R   N=          20
  1.00000000E+00  1.00000000E+00  1.00000000E+00  1.00000000E+00  1.00000000E+00
  0.00000000E+00  0.00000000E+00  0.00000000E+00  1.00000000E+00  0.00000000E+00
  0.00000000E+00  0.00000000E+00  1.00000000E+00  0.00000000E+00  0.00000000E+00
  0.00000000E+00  1.00000000E+00  0.00000000E+00  0.00000000E+00  0.00000000E+00
Virial Ratio                               R      2.011195257058753E+00
SCF Energy                                 R     -4.051838446721190E+01
Total Energy                               R     -4.051838446721190E+01
RMS Force                                  R      8.732634129832865E-05
RMS Density                                R      1.132316064617886E-10
External E-field                           R   N=          35
  0.00000000E+00  0.00000000E+00  0.00000000E+00  0.00000000E+00  0.00000000E+00
  0.00000000E+00  0.00000000E+00  0.00000000E+00  0.00000000E+00  0.00000000E+00
  0.00000000E+00  0.00000000E+00  0.00000000E+00  0.00000000E+00  0.00000000E+00
  0.00000000E+00  0.00000000E+00  0.00000000E+00  0.00000000E+00  0.00000000E+00
  0.00000000E+00  0.00000000E+00  0.00000000E+00  0.00000000E+00  0.00000000E+00
  0.00000000E+00  0.00000000E+00  0.00000000E+00  0.00000000E+00  0.00000000E+00
  0.00000000E+00  0.00000000E+00  0.00000000E+00  0.00000000E+00  0.00000000E+00
IOpCl                                      I                0
IROHF                                      I                0
Alpha Orbital Energies                     R   N=          23
 -1.01670504E+01 -6.90222258E-01 -3.89025229E-01 -3.89024407E-01 -3.89021099E-01
  1.17856314E-01  1.76460661E-01  1.76462545E-01  1.76463057E-01  5.33326117E-01
  5.33329062E-01  5.33329488E-01  8.97531378E-01  8.97536731E-01  8.97537322E-01
  9.47098492E-01  1.09977494E+00  1.65656590E+00  1.65656733E+00  2.24327867E+00
  2.24328095E+00  2.24328187E+00  4.17898716E+00
Alpha MO coefficients                      R   N=         529
  9.92806830E-01  4.97591155E-02  3.40504433E-09  3.32655592E-10  4.19310407E-09
 -1.46350097E-02  2.05550220E-08 -2.65721001E-08 -3.77996977E-08 -9.33973075E-03
 -9.33973728E-03 -9.33974854E-03 -4.90561415E-09  6.73182165E-09 -6.28186973E-09
 -1.59160036E-04  2.60071097E-03 -1.59143660E-04  2.60071317E-03 -1.59158510E-04
  2.60071437E-03 -1.59168830E-04  2.60071353E-03 -1.98449345E-01  3.80190921E-01
 -1.16067245E-07  7.47905105E-07  1.75604113E-07  3.61977907E-01 -1.19947314E-06
  6.72214898E-07  2.71545089E-07  1.50182820E-03  1.50166404E-03  1.50124172E-03
  1.70459654E-09  1.36940897E-07 -1.33634630E-07  1.34673765E-01  3.86328621E-02
  1.34672911E-01  3.86327790E-02  1.34673959E-01  3.86338404E-02  1.34674136E-01
  3.86341349E-02 -3.92066798E-07  1.34376245E-06  3.90644148E-01 -1.95942827E-01
  9.02024112E-02 -7.33607166E-07  1.87954046E-01 -9.42760567E-02  4.33994904E-02
  4.69937883E-03  6.04425621E-03 -1.07436103E-02 -2.23443448E-02 -2.16615968E-03
 -6.00321994E-03 -1.70174080E-01 -1.43708243E-01 -6.62363158E-02 -5.59352753E-02
 -4.54219001E-02 -3.83586065E-02  2.81832181E-01  2.38002278E-01  2.83286899E-07
 -9.09236282E-07  2.05614366E-01  3.94658927E-01 -3.31608645E-02  2.03150542E-07
  9.89272021E-02  1.89887781E-01 -1.59555743E-02 -1.15516723E-02  1.09429110E-02
  6.09042339E-04  5.79124696E-03 -1.42509525E-02 -1.58228605E-02 -1.94829193E-01
 -1.64530985E-01  1.81637184E-03  1.53321460E-03  2.67167034E-01  2.25618016E-01
 -7.41545991E-02 -6.26208461E-02  6.17360168E-07 -1.25407541E-06 -6.52139822E-02
  7.05913167E-02  4.35771260E-01 -1.25444252E-06 -3.13777552E-02  3.39636129E-02
  2.09667739E-01 -7.50258534E-03 -9.17606667E-03  1.66788537E-02 -9.18444341E-03
 -1.43076137E-02  9.37373025E-03 -1.38605679E-01 -1.17052404E-01  2.85899706E-01
  2.41441924E-01 -1.12638681E-01 -9.51222809E-02 -3.46530770E-02 -2.92648085E-02
 -1.62957383E-01  1.96263101E-01 -6.84505572E-07  2.30664294E-06  2.97052184E-06
  2.60604028E+00  3.78809612E-07  1.03064163E-05  9.65352419E-06 -1.27041553E-02
 -1.27042508E-02 -1.27041952E-02  1.85244664E-08  3.76864952E-08  1.98457369E-09
 -1.94032785E-02 -9.91020900E-01 -1.94034493E-02 -9.91028894E-01 -1.94043626E-02
 -9.91035346E-01 -1.94040969E-02 -9.91031355E-01 -5.23429576E-07  1.33891177E-06
  7.38373532E-02 -5.57141147E-03 -3.77222221E-01  1.29420417E-05  2.60888981E-01
 -1.96786342E-02 -1.33283619E+00 -4.25875971E-03 -8.04265569E-03  1.23016894E-02
 -7.98157459E-03 -9.20463313E-03  8.74473504E-03 -4.86052055E-02 -7.14556350E-01
  1.21710754E-01  1.78932425E+00 -6.59470972E-02 -9.69515827E-01 -7.16081680E-03
 -1.05262462E-01 -7.96706362E-08 -1.74229466E-06 -3.28223201E-01  1.88558844E-01
 -6.70296149E-02  2.34089894E-06 -1.15973538E+00  6.66258299E-01 -2.36846627E-01
  4.22681089E-03  4.37672006E-03 -8.60405843E-03 -1.70058111E-02 -7.17883428E-04
 -4.15202338E-03 -6.71817686E-02 -9.87742686E-01 -3.26727678E-02 -4.80361371E-01
 -2.42631794E-02 -3.56694110E-01  1.24117131E-01  1.82479223E+00 -9.23597334E-07
  5.89983061E-07 -1.86001131E-01 -3.34952315E-01 -3.14627231E-02  1.65048245E-05
 -6.57211267E-01 -1.18350221E+00 -1.11160312E-01 -9.32776997E-03  7.47078679E-03
  1.85615149E-03  2.34944939E-03 -1.24221797E-02 -1.11194370E-02 -9.64644029E-02
 -1.41822806E+00  1.73471443E-02  2.55043981E-01  1.06036809E-01  1.55896340E+00
 -2.69217249E-02 -3.95799328E-01  5.97622660E-08  1.18405937E-06  1.81790826E-01
 -7.02318327E-01  2.41607019E-01 -7.38379313E-07 -3.45514955E-01  1.33483738E+00
 -4.59195977E-01  4.21788661E-02 -2.00759230E-02 -2.21026758E-02 -8.14860787E-02
  2.80506146E-02  3.43923286E-02  1.47701320E-02  6.73539482E-03 -1.56797516E-02
 -7.15899973E-03 -4.03047033E-01 -1.83811487E-01  4.03960094E-01  1.84229852E-01
 -2.32241427E-08 -3.56823613E-06 -6.96491235E-01 -7.48255142E-02  3.06551266E-01
  3.01316368E-06  1.32376870E+00  1.42213324E-01 -5.82618954E-01 -3.15153931E-03
 -5.81348415E-02  6.12865460E-02  2.89159011E-02  7.21615940E-03  6.88354471E-02
  2.50165846E-01  1.14106954E-01  3.18804625E-01  1.45384590E-01 -2.86426571E-01
 -1.30619346E-01 -2.82551646E-01 -1.28862319E-01  4.76421553E-07  7.47941142E-06
 -2.57920146E-01 -2.92954451E-01 -6.57515108E-01 -1.71484393E-05  4.90217185E-01
  5.56792860E-01  1.24966113E+00  3.95692053E-02  5.09938908E-03 -4.46673502E-02
  4.79427002E-02  7.54591518E-02  2.54136748E-03  4.26348282E-01  1.94429779E-01
 -3.77737533E-01 -1.72246488E-01 -9.18453577E-03 -4.20234114E-03 -3.94127374E-02
 -1.79800688E-02  1.13727113E-06  2.12282044E-05 -1.71420795E-01  1.02103153E-01
  8.26661166E-01 -5.62405963E-05  2.46507429E-01 -1.46827312E-01 -1.18876050E+00
  5.54403184E-02  7.96550706E-02 -1.35092171E-01  6.99082249E-02  1.06476163E-01
 -8.35041864E-02  3.67220667E-01 -7.05284246E-01 -8.70160233E-01  1.67128200E+00
  3.83564413E-01 -7.36672873E-01  1.19385568E-01 -2.29278674E-01 -1.25213338E-07
  3.58651196E-06  2.93327448E-01  7.97326176E-01 -3.76534173E-02 -6.96545980E-06
 -4.21811056E-01 -1.14657311E+00  5.41457528E-02  9.89587246E-02 -7.67235782E-02
 -2.22347433E-02 -6.28741780E-02  1.16752548E-01  1.15224532E-01  5.46792977E-01
 -1.05019133E+00 -7.66043424E-02  1.47130142E-01 -7.99905528E-01  1.53632744E+00
  3.29710732E-01 -6.33256987E-01 -1.17240180E-06 -8.66436520E-06  7.79591846E-01
 -2.77549325E-01  1.95942048E-01  2.87287889E-05 -1.12106935E+00  3.99120967E-01
 -2.81768562E-01 -2.40653916E-02 -5.50798651E-02  7.91433700E-02  1.74172885E-01
  3.48602120E-02  5.92272399E-02  5.96839019E-01 -1.14632437E+00  1.64319060E-01
 -3.15608492E-01  5.55868977E-02 -1.06775491E-01 -8.16763333E-01  1.56869071E+00
  1.00222080E-01 -8.03995760E-01  3.29494902E-06  2.01592132E-06  3.49265772E-06
  1.10614255E+00 -3.90880044E-07 -9.01503987E-06 -1.35599954E-05 -2.14975212E-02
 -2.14995329E-02 -2.15020967E-02  9.85810324E-07 -4.05360334E-07  9.93194325E-07
  6.51110481E-01 -5.39953931E-01  6.51111299E-01 -5.39932686E-01  6.51105699E-01
 -5.39939933E-01  6.51102678E-01 -5.39943041E-01 -9.95169539E-02 -2.05930695E+00
 -3.51310713E-06 -5.57237893E-07  9.18979539E-07  5.44767702E+00 -4.14226874E-06
  1.44598920E-05  1.68931278E-05 -1.14331002E-01 -1.14328532E-01 -1.14331133E-01
 -1.41182956E-06  4.79281231E-06 -3.31878482E-06 -2.90341543E-01 -1.03372096E+00
 -2.90363462E-01 -1.03370677E+00 -2.90341530E-01 -1.03372974E+00 -2.90334132E-01
 -1.03373305E+00 -1.01797875E-06 -9.73319334E-06 -3.99877791E-07  1.21424814E-07
 -1.71221511E-07  3.08109770E-05 -8.44367071E-07  5.72429971E-07  2.71595069E-08
  7.49110797E-01 -2.67353730E-01 -4.81757880E-01  2.36231637E-01 -5.94121918E-01
  1.21339692E-01 -5.69183412E-06 -4.65445780E-06 -5.42219190E-06 -5.07080015E-06
 -4.92191774E-06 -4.88680698E-06 -3.68561213E-06 -5.10195371E-06 -4.59329475E-07
 -3.05022093E-06 -3.99722232E-08  2.74613442E-07 -2.16561698E-07  1.15977650E-05
  2.61450630E-07  5.23731670E-07 -6.65807359E-09 -3.40531828E-01  7.49638077E-01
 -4.09107459E-01  5.86500616E-02 -1.35125563E-01  6.44030948E-01 -1.19661890E-06
 -1.77452806E-06 -1.84138908E-06 -1.91300123E-06 -2.95468772E-06 -1.62006532E-06
 -9.50103258E-07 -2.11881097E-06  8.81706223E-07 -6.74411964E-06 -1.08475293E-01
  2.29925152E-02  1.00133966E-01 -1.55919040E-06 -3.13577260E-01  6.64663193E-02
  2.89461031E-01 -2.50902888E-01 -5.88776984E-01  8.39682926E-01  1.78056914E-01
 -2.85045940E-01  6.48012189E-01 -1.01633388E-01  1.13460991E-02 -7.35037850E-01
  8.21173710E-02  3.62380893E-01 -4.04859357E-02  4.74311393E-01 -5.29839971E-02
 -4.44403225E-07  3.30589412E-06 -8.63341530E-02 -9.93477233E-02 -7.07087145E-02
  9.31933854E-07 -2.49570323E-01 -2.87186885E-01 -2.04398499E-01  5.12957134E-01
 -2.82408227E-01 -2.30550851E-01  2.91404447E-01  8.49112826E-01  4.53943521E-01
 -7.84609981E-01  8.76491271E-02  3.34541332E-01 -3.73768738E-02  4.22641258E-01
 -4.72096859E-02  2.74179877E-02 -3.05986717E-03  1.09091243E-07 -5.38606339E-07
 -5.57051453E-02  1.09201739E-01 -8.54150144E-02 -1.90014151E-07 -1.61026821E-01
  3.15669164E-01 -2.46907420E-01 -2.93093155E-01  2.03275036E-01  8.98185126E-02
  1.04104747E+00 -7.18676306E-03 -3.19329868E-01 -2.32899750E-01  2.60180586E-02
  1.67231616E-01 -1.86870581E-02 -6.08470847E-01  6.79743124E-02  6.74141358E-01
 -7.53062821E-02 -4.88219392E-01  2.93581611E+00  1.42722158E-07 -2.49059993E-07
 -1.85352114E-07  2.44724587E+00 -3.54312670E-06  4.60156287E-06  5.84519030E-06
 -1.87957761E+00 -1.87957763E+00 -1.87957390E+00  3.90369334E-07 -1.90143920E-06
  9.87857788E-07  1.27679863E-01 -4.95092104E-01  1.27673576E-01 -4.95089565E-01
  1.27679078E-01 -4.95092469E-01  1.27681442E-01 -4.95092812E-01
Total SCF Density                          R   N=         276
  2.05009509E+00 -5.20948993E-02  2.94042213E-01 -2.17514479E-07  7.51611733E-07
  3.98265962E-01  1.68227264E-07 -8.52604759E-07  1.71311524E-07  3.98264789E-01
  3.87165661E-07 -6.56313229E-07  6.29529939E-07 -1.59192995E-07  3.98265418E-01
 -1.72728033E-01  2.73784978E-01 -4.10130192E-07  8.12175488E-07 -1.11211267E-06
  2.62484378E-01  3.86809377E-07 -5.06077080E-07  1.91620541E-01 -1.48122499E-06
 -2.54618756E-07 -1.02581866E-06  9.21957565E-02 -9.61171094E-08 -1.75365238E-07
  7.26501841E-07  1.91622322E-01 -8.08385870E-07  6.17695642E-07 -4.02791638E-07
  9.21977422E-02  3.29785261E-08 -1.77510132E-07 -4.13072781E-07 -2.13815677E-07
  1.91622028E-01 -3.98498331E-07 -4.66985260E-07 -4.54972123E-07  9.21973136E-02
 -1.91411901E-02  2.12541867E-04 -1.00263341E-04 -1.20187928E-02 -4.92490420E-03
  1.36063859E-03 -4.81901226E-05 -5.78274793E-03 -2.36957026E-03  6.02600278E-04
 -1.91411283E-02  2.12383298E-04  1.04191613E-02  4.97327871E-03 -7.63267162E-03
  1.36053130E-03  5.01303271E-03  2.39289064E-03 -3.67241436E-03  1.20650849E-04
  6.59932441E-04 -1.91409438E-02  2.11969877E-04 -1.03187906E-02  7.04576143E-03
  1.25577387E-02  1.36018146E-03 -4.96480228E-03  3.38998059E-03  6.04206692E-03
 -1.86345863E-04 -2.43667103E-04  9.66929765E-04 -9.55305408E-10 -4.67382912E-08
 -1.38779397E-02  1.20308789E-02 -1.24197460E-02  5.95572856E-08 -6.67722188E-03
  5.78857374E-03 -5.97563466E-03 -2.05992018E-04  2.51905368E-05  1.80800215E-04
  1.23432458E-03 -6.50264249E-08  1.60776322E-07 -5.68668342E-03 -1.24196310E-02
 -1.19153315E-02  1.32226319E-07 -2.73600908E-03 -5.97560602E-03 -5.73294619E-03
  5.23573928E-04 -7.55039393E-05 -4.48083019E-04  1.94556202E-04  8.24979409E-04
  4.78824868E-08 -1.13109601E-07 -1.24196569E-02 -8.81328260E-03  8.13599412E-03
 -1.17700143E-07 -5.97553481E-03 -4.24048442E-03  3.91458993E-03  1.68483482E-04
 -5.90894537E-04  4.22404793E-04 -8.71771426E-05  2.08758112E-04  7.48536764E-04
 -5.37680195E-02  1.02387891E-01 -1.94996354E-01 -1.06661894E-01 -1.38579511E-01
  9.75030325E-02 -9.38196806E-02 -5.13196020E-02 -6.66759186E-02  5.38906966E-03
 -3.36999609E-03 -7.96989358E-04  7.89428117E-03  1.02565215E-02  5.61015467E-03
  2.08532429E-01 -1.01694502E-02  2.96347516E-02 -1.64670538E-01 -9.00757546E-02
 -1.17029814E-01  2.78928000E-02 -7.92286805E-02 -4.33393476E-02 -5.63075610E-02
  4.27438836E-03 -3.12250616E-03 -9.49707237E-04  6.66657637E-03  8.66152827E-03
  4.73768035E-03  1.55874808E-01  1.25846062E-01 -5.37670940E-02  1.02386100E-01
 -8.82920620E-02  6.77550315E-02  2.37103982E-01  9.75012761E-02 -4.24814950E-02
  3.25993660E-02  1.14080756E-01 -4.54699337E-03 -5.60037561E-03  1.13697315E-02
 -2.27060661E-03 -7.94586138E-03  6.09763941E-03 -2.11451352E-02 -3.80860131E-02
  2.08532018E-01 -1.01689449E-02  2.96337234E-02 -7.45618616E-02  5.72178899E-02
  2.00234237E-01  2.78917790E-02 -3.58750731E-02  2.75295237E-02  9.63411336E-02
 -4.11656208E-03 -5.00614603E-03  9.32512446E-03 -1.91758666E-03 -6.71027497E-03
  5.14947641E-03 -3.80855895E-02 -3.79520003E-02  1.55876563E-01  1.25849127E-01
 -5.37678971E-02  1.02387468E-01  8.90703641E-02  2.12777477E-01 -1.24082662E-01
  9.75031118E-02  4.28540894E-02  1.02376853E-01 -5.97015035E-02 -4.50171155E-03
  7.77269011E-03 -2.04861637E-03  7.19335339E-03 -4.19476893E-03 -1.00210633E-02
 -2.11457448E-02 -3.80853980E-02 -2.11451048E-02 -3.80859471E-02  2.08531892E-01
 -1.01696662E-02  2.96350144E-02  7.52180766E-02  1.79686960E-01 -1.04786553E-01
  2.78934570E-02  3.61895622E-02  8.64554640E-02 -5.04173443E-02 -4.07826511E-03
  6.28728413E-03 -2.00660209E-03  6.07470568E-03 -3.54240523E-03 -8.46260603E-03
 -3.80845927E-02 -3.79502307E-02 -3.80847507E-02 -3.79513802E-02  1.55874047E-01
  1.25844915E-01 -5.37683418E-02  1.02388907E-01  1.94217382E-01 -1.73869749E-01
  2.55603631E-02  9.75024261E-02  9.34455319E-02 -8.36558642E-02  1.22979131E-02
  5.28955498E-03  2.82739916E-03 -6.89473395E-03 -1.28170672E-02  1.88420289E-03
 -1.68681857E-03 -2.11456795E-02 -3.80844377E-02 -2.11450778E-02 -3.80846779E-02
 -2.11452325E-02 -3.80849168E-02  2.08532534E-01 -1.01700835E-02  2.96363400E-02
  1.64013843E-01 -1.46829055E-01  2.15843700E-02  2.78929825E-02  7.89136073E-02
 -7.06455249E-02  1.03849066E-02  4.19026390E-03  2.11110749E-03 -6.09907350E-03
 -1.08237534E-02  1.59114130E-03 -1.42452942E-03 -3.80851811E-02 -3.79499849E-02
 -3.80847588E-02 -3.79503561E-02 -3.80835880E-02 -3.79494854E-02  1.55874090E-01
  1.25844487E-01
QEq coupling tensors                       R   N=          30
  1.33889921E-06  2.26222042E-07 -2.00118598E-06  2.26485385E-06 -8.30219086E-07
  6.62286766E-07 -9.83187540E-02 -1.34925893E-01  7.45481866E-02 -1.75300949E-01
 -9.58878440E-02  2.37705674E-02  9.77758941E-02  3.88075847E-02  1.18565830E-01
  1.35802903E-01 -1.04214811E-01 -2.16341724E-01  9.68849859E-02 -1.22946992E-01
 -1.45356616E-01  7.16965199E-02  1.71275885E-01  4.84716303E-02 -9.63511584E-02
  2.19066629E-01 -4.77631782E-02 -3.22052344E-02  2.88311257E-02  1.44114337E-01
Mulliken Charges                           R   N=           5
 -6.28089488E-01  1.57022757E-01  1.57020018E-01  1.57024017E-01  1.57022696E-01
Optimization MaxStp                        I                2
Optimization Job offset                    I                0
Optimization Num results per geometry      I                2
Optimization Num geometry variables        I               15
Opt point       1 Results for each geome   R   N=           2
 -4.05183845E+01  0.00000000E+00
Opt point       1 Geometries               R   N=          15
  2.93141708E-06 -3.22562349E-06 -4.66014729E-06 -1.53842347E+00 -8.41504577E-01
 -1.09331147E+00 -6.96585584E-01  5.34557098E-01  1.87062450E+00  7.02717892E-01
  1.67870924E+00 -9.78942610E-01  1.53227357E+00 -1.37174241E+00  2.01657543E-01
Opt point       1 Gradient at each geome   R   N=          15
  4.44932155E-06 -8.23560118E-07 -6.47824136E-06 -1.23986655E-04 -7.32225867E-05
 -8.92203599E-05 -5.77972775E-05  4.39914702E-05  1.55992615E-04  5.26727790E-05
  1.40152273E-04 -7.55623470E-05  1.24661832E-04 -1.10097597E-04  1.52683329E-05
Optimization Number of geometries          I   N=           1
           1
ONIOM Charges                              I   N=          16
           0           0           0           0           0           0
           0           0           0           0           0           0
           0           0           0           0
ONIOM Multiplicities                       I   N=          16
           1           0           0           0           0           0
           0           0           0           0           0           0
           0           0           0           0
Atom Layers                                I   N=           5
           1           1           1           1           1
Atom Modifiers                             I   N=           5
           0           0           0           0           0
Force Field                                I                0
Atom Modified Types                        C   N=           5
                                                            
Int Atom Modified Types                    I   N=           5
           0           0           0           0           0
Link Atoms                                 I   N=           5
           0           0           0           0           0
Atom Modified MM Charges                   R   N=           5
  0.00000000E+00  0.00000000E+00  0.00000000E+00  0.00000000E+00  0.00000000E+00
Link Distances                             R   N=          20
  0.00000000E+00  0.00000000E+00  0.00000000E+00  0.00000000E+00  0.00000000E+00
  0.00000000E+00  0.00000000E+00  0.00000000E+00  0.00000000E+00  0.00000000E+00
  0.00000000E+00  0.00000000E+00  0.00000000E+00  0.00000000E+00  0.00000000E+00
  0.00000000E+00  0.00000000E+00  0.00000000E+00  0.00000000E+00  0.00000000E+00
Cartesian Gradient                         R   N=          15
  4.44932155E-06 -8.23560118E-07 -6.47824136E-06 -1.23986655E-04 -7.32225867E-05
 -8.92203599E-05 -5.77972775E-05  4.39914702E-05  1.55992615E-04  5.26727790E-05
  1.40152273E-04 -7.55623470E-05  1.24661832E-04 -1.10097597E-04  1.52683329E-05
Cartesian Force Constants                  R   N=         120
  5.58595204E-01  5.19620928E-05  5.58554724E-01  8.12587538E-06 -2.98492903E-05
  5.58544963E-01 -2.00200760E-01 -8.31024538E-02 -1.07960175E-01  2.13960637E-01
 -8.31213554E-02 -9.37394214E-02 -5.90538219E-02  9.14309876E-02  9.68240449E-02
 -1.07956205E-01 -5.90367739E-02 -1.25007645E-01  1.18786326E-01  6.49636609E-02
  1.31233759E-01 -7.94034110E-02  2.38878529E-02  8.36283031E-02  1.09105418E-02
 -5.81005415E-03 -2.38493322E-02  8.10571071E-02  2.39000618E-02 -6.66071101E-02
 -6.41750341E-02  5.84983424E-03 -4.46361865E-03 -1.13208833E-02 -2.62946031E-02
  6.69831878E-02  8.36351820E-02 -6.41839523E-02 -2.72876095E-01  6.27700451E-03
 -3.11533979E-03 -1.41447412E-02 -9.20255972E-02  7.06131683E-02  2.93931629E-01
 -8.00169372E-02 -7.57461192E-02  4.41514658E-02 -7.82344323E-03 -1.92327685E-02
  1.37522055E-02 -4.81887897E-03 -8.93593496E-03  3.81634414E-03  8.17139116E-02
 -7.57374213E-02 -2.29175281E-01  1.05490735E-01 -2.76216869E-03 -9.95430454E-03
  5.77782642E-03  3.85574452E-03  9.67941450E-03 -4.49606987E-03  8.33260011E-02
  2.45830441E-01  4.41464334E-02  1.05489013E-01 -1.09787663E-01 -5.06558027E-03
 -1.62327289E-02  1.01034332E-02  9.05122871E-03  2.58334927E-02 -1.25548521E-02
 -4.85830261E-02 -1.16071470E-01  1.14484438E-01 -1.98974096E-01  1.34908758E-01
 -1.98277194E-02 -1.68469753E-02  1.67331904E-02 -7.32994892E-04 -7.74535900E-03
  5.48064203E-03 -1.70293346E-03  1.09453478E-02 -8.68215559E-03  4.50944287E-04
  2.12621082E-01  1.34906753E-01 -1.69032911E-01  1.77679700E-02 -1.14161994E-02
  1.13332997E-02 -3.83830194E-04  4.36105990E-03 -5.59187361E-03  1.18219366E-03